 Gaussian 09, Revision E.01,
 Gaussian 09:  EM64M-G09RevE.01 30-Nov-2015

 -------------------------------
 # PBE1PBE/Def2SVP scf=tight nmr
 -------------------------------

 --------------
 anthracene nmr
 --------------
 Symbolic Z-matrix:
 Charge =  0 Multiplicity = 1

                          Input orientation:
 ---------------------------------------------------------------------
 Center     Atomic      Atomic             Coordinates (Angstroms)
 Number     Number       Type             X           Y           Z
 ---------------------------------------------------------------------
      1          6           0       -2.475850   -1.405210    0.000000
      2          6           0       -3.656110   -0.711900    0.000000
      3          6           0       -3.656110    0.711900    0.000000
      4          6           0       -2.475850    1.405210    0.000000
      5          6           0       -1.222350    0.720760    0.000000
      6          6           0       -1.222350   -0.720760    0.000000
      7          6           0        0.000000   -1.401680    0.000000
      8          6           0        1.222350   -0.720760    0.000000
      9          6           0        1.222350    0.720760    0.000000
     10          6           0        0.000000    1.401680    0.000000
     11          6           0        2.475850   -1.405210    0.000000
     12          6           0        3.656110   -0.711900    0.000000
     13          6           0        3.656110    0.711900    0.000000
     14          6           0        2.475850    1.405210    0.000000
     15          1           0       -4.607410   -1.249510    0.000000
     16          1           0       -2.473820   -2.498530    0.000000
     17          1           0       -2.473820    2.498530    0.000000
     18          1           0       -4.607410    1.249510    0.000000
     19          1           0        0.000000   -2.495620    0.000000
     20          1           0        0.000000    2.495620    0.000000
     21          1           0        2.473820   -2.498530    0.000000
     22          1           0        4.607410   -1.249510    0.000000
     23          1           0        4.607410    1.249510    0.000000
     24          1           0        2.473820    2.498530    0.000000
     25          0           0        0.000000    0.000000  -10.000000
     26          0           0        0.000000    0.000000   -9.000000
     27          0           0        0.000000    0.000000   -8.000000
     28          0           0        0.000000    0.000000   -7.000000
     29          0           0        0.000000    0.000000   -6.000000
     30          0           0        0.000000    0.000000   -5.000000
     31          0           0        0.000000    0.000000   -4.000000
     32          0           0        0.000000    0.000000   -3.000000
     33          0           0        0.000000    0.000000   -2.000000
     34          0           0        0.000000    0.000000   -1.000000
     35          0           0        0.000000    0.000000    0.000000
     36          0           0        0.000000    0.000000    1.000000
     37          0           0        0.000000    0.000000    2.000000
     38          0           0        0.000000    0.000000    3.000000
     39          0           0        0.000000    0.000000    4.000000
     40          0           0        0.000000    0.000000    5.000000
     41          0           0        0.000000    0.000000    6.000000
     42          0           0        0.000000    0.000000    7.000000
     43          0           0        0.000000    0.000000    8.000000
     44          0           0        0.000000    0.000000    9.000000
     45          0           0        0.000000    0.000000   10.000000
 ---------------------------------------------------------------------

 SCF Done:  E(RPBE1PBE) =  -538.511064403     A.U. after   13 cycles

      1  C    Isotropic =    65.7447   Anisotropy =   154.4948

      2  C    Isotropic =    69.6951   Anisotropy =   172.1639

      3  C    Isotropic =    69.6951   Anisotropy =   172.1639

      4  C    Isotropic =    65.7447   Anisotropy =   154.4948

      5  C    Isotropic =    64.2319   Anisotropy =   205.7633

      6  C    Isotropic =    64.2319   Anisotropy =   205.7633

      7  C    Isotropic =    67.1942   Anisotropy =   135.4839

      8  C    Isotropic =    64.2319   Anisotropy =   205.7633

      9  C    Isotropic =    64.2319   Anisotropy =   205.7633

     10  C    Isotropic =    67.1942   Anisotropy =   135.4839

     11  C    Isotropic =    65.7447   Anisotropy =   154.4948

     12  C    Isotropic =    69.6951   Anisotropy =   172.1639

     13  C    Isotropic =    69.6951   Anisotropy =   172.1639

     14  C    Isotropic =    65.7447   Anisotropy =   154.4948

     15  H    Isotropic =    23.8791   Anisotropy =     5.5049

     16  H    Isotropic =    23.3344   Anisotropy =     7.7286

     17  H    Isotropic =    23.3344   Anisotropy =     7.7286

     18  H    Isotropic =    23.8791   Anisotropy =     5.5049

     19  H    Isotropic =    22.9674   Anisotropy =     9.4136

     20  H    Isotropic =    22.9674   Anisotropy =     9.4136

     21  H    Isotropic =    23.3344   Anisotropy =     7.7286

     22  H    Isotropic =    23.8791   Anisotropy =     5.5049

     23  H    Isotropic =    23.8791   Anisotropy =     5.5049

     24  H    Isotropic =    23.3344   Anisotropy =     7.7286

     25  Bq   Isotropic =     0.1808   Anisotropy =     0.8553

     26  Bq   Isotropic =     0.2411   Anisotropy =     1.1313

     27  Bq   Isotropic =     0.3304   Anisotropy =     1.5343

     28  Bq   Isotropic =     0.4679   Anisotropy =     2.1425

     29  Bq   Isotropic =     0.6894   Anisotropy =     3.0968

     30  Bq   Isotropic =     1.0667   Anisotropy =     4.6655

     31  Bq   Isotropic =     1.7605   Anisotropy =     7.4020

     32  Bq   Isotropic =     3.2026   Anisotropy =    12.5660

     33  Bq   Isotropic =     6.8212   Anisotropy =    22.7211

     34  Bq   Isotropic =    13.6020   Anisotropy =    32.2527

     35  Bq   Isotropic =    11.6438   Anisotropy =     9.0671

     36  Bq   Isotropic =    13.6020   Anisotropy =    32.2527

     37  Bq   Isotropic =     6.8212   Anisotropy =    22.7211

     38  Bq   Isotropic =     3.2026   Anisotropy =    12.5660

     39  Bq   Isotropic =     1.7605   Anisotropy =     7.4020

     40  Bq   Isotropic =     1.0667   Anisotropy =     4.6655

     41  Bq   Isotropic =     0.6894   Anisotropy =     3.0968

     42  Bq   Isotropic =     0.4679   Anisotropy =     2.1425

     43  Bq   Isotropic =     0.3304   Anisotropy =     1.5343

     44  Bq   Isotropic =     0.2411   Anisotropy =     1.1313

     45  Bq   Isotropic =     0.1808   Anisotropy =     0.8553

 Alpha  occ. eigenvalues --  -10.24931 -10.24929 -10.24907 -10.24900 -10.24282
 Alpha  occ. eigenvalues --  -10.24269 -10.24261 -10.24261 -10.24259 -10.24256
 Alpha  occ. eigenvalues --  -10.24203 -10.24203 -10.24185 -10.24185  -0.90511
 Alpha  occ. eigenvalues --   -0.87286  -0.82250  -0.80340  -0.77016  -0.75749
 Alpha  occ. eigenvalues --   -0.72038  -0.66263  -0.63380  -0.61800  -0.60670
 Alpha  occ. eigenvalues --   -0.55379  -0.54126  -0.52250  -0.48017  -0.47616
 Alpha  occ. eigenvalues --   -0.46564  -0.46422  -0.43976  -0.42914  -0.42509
 Alpha  occ. eigenvalues --   -0.42121  -0.40447  -0.39214  -0.38202  -0.36126
 Alpha  occ. eigenvalues --   -0.35146  -0.34059  -0.32239  -0.31712  -0.27433
 Alpha  occ. eigenvalues --   -0.25712  -0.21011
 Alpha virt. eigenvalues --   -0.06740  -0.01778   0.00243   0.03725   0.06406
 Alpha virt. eigenvalues --    0.07522   0.07872   0.08475   0.11431   0.11443
 Alpha virt. eigenvalues --    0.13860   0.14137   0.15408   0.15733   0.16101

 Mulliken charges:
               1
     1  C   -0.015002
     2  C   -0.015867
     3  C   -0.015867
     4  C   -0.015002
     5  C    0.031588
     6  C    0.031588
     7  C   -0.059682
     8  C    0.031588
     9  C    0.031588
    10  C   -0.059682
    11  C   -0.015002
    12  C   -0.015867
    13  C   -0.015867
    14  C   -0.015002
    15  H    0.022506
    16  H    0.008752
    17  H    0.008752
    18  H    0.022506
    19  H   -0.004272
    20  H   -0.004272
    21  H    0.008752
    22  H    0.022506
    23  H    0.022506
    24  H    0.008752
    25  Bq   0.000000
    26  Bq   0.000000
    27  Bq   0.000000
    28  Bq   0.000000
    29  Bq   0.000000
    30  Bq   0.000000
    31  Bq   0.000000
    32  Bq   0.000000
    33  Bq   0.000000
    34  Bq   0.000000
    35  Bq   0.000000
    36  Bq   0.000000
    37  Bq   0.000000
    38  Bq   0.000000
    39  Bq   0.000000
    40  Bq   0.000000
    41  Bq   0.000000
    42  Bq   0.000000
    43  Bq   0.000000
    44  Bq   0.000000
    45  Bq   0.000000
 Sum of Mulliken charges =  -0.00000

 Dipole moment (field-independent basis, Debye):
    X=              0.0000    Y=              0.0000    Z=              0.0000  Tot=              0.0000
 Quadrupole moment (field-independent basis, Debye-Ang):
   XX=            -70.1269   YY=            -70.8270   ZZ=            -87.6447
   XY=             -0.0000   XZ=             -0.0000   YZ=             -0.0000

 Normal termination of Gaussian 09 at Tue Nov 24 13:36:03 2020.
